Title: * D:\Faculdade\Circuitos\PRATICA09\TESTE_BLOCO_ULA.asc
Date: Thu Jul 14 11:52:47 2016
Plotname: Transient Analysis
Flags: real forward
No. Variables: 50
No. Points:            6
Offset:   0.0000000000000000e+000
Command: Linear Technology Corporation LTspice IV
Backannotation: u1 a b y vcc vgnd
Backannotation: u2 a b y vcc vgnd
Backannotation: u3 a b y vcc vgnd
Backannotation: u4 a b y vcc vgnd
Backannotation: u5 a b y vcc vgnd
Backannotation: u6 a b y vcc vgnd
Backannotation: u1:in1 in out vcc vgnd
Backannotation: u1:in2 in out vcc vgnd
Backannotation: u1:out in out vcc vgnd
Backannotation: u2:in1 in out vcc vgnd
Backannotation: u2:in2 in out vcc vgnd
Backannotation: u2:out in out vcc vgnd
Backannotation: u3:in1 in out vcc vgnd
Backannotation: u3:in2 in out vcc vgnd
Backannotation: u3:out in out vcc vgnd
Backannotation: u4:in1 in out vcc vgnd
Backannotation: u4:in2 in out vcc vgnd
Backannotation: u4:out in out vcc vgnd
Backannotation: u5:in1 in out vcc vgnd
Backannotation: u5:in2 in out vcc vgnd
Backannotation: u5:out in out vcc vgnd
Backannotation: u6:in1 in out vcc vgnd
Backannotation: u6:in2 in out vcc vgnd
Backannotation: u6:out in out vcc vgnd
Backannotation: u1 a b y vcc vgnd
Backannotation: u2 a b y vcc vgnd
Backannotation: u1:in1 in out vcc vgnd
Backannotation: u1:in2 in out vcc vgnd
Backannotation: u1:out in out vcc vgnd
Backannotation: u2:in1 in out vcc vgnd
Backannotation: u2:in2 in out vcc vgnd
Backannotation: u2:out in out vcc vgnd
Backannotation: u1 a b c d y vcc vgnd
Backannotation: u1:in1 in out vcc vgnd
Backannotation: u1:in2 in out vcc vgnd
Backannotation: u1:in3 in out vcc vgnd
Backannotation: u1:in4 in out vcc vgnd
Backannotation: u1:out in out vcc vgnd
Backannotation: u1 a b y vcc vgnd
Backannotation: u2 a b y vcc vgnd
Backannotation: u3 a b y vcc vgnd
Backannotation: u4 a b y vcc vgnd
Backannotation: u5 a b y vcc vgnd
Backannotation: u6 a b y vcc vgnd
Backannotation: u7 a b y vcc vgnd
Backannotation: u8 a b y vcc vgnd
Backannotation: u9 a y vcc vgnd
Backannotation: u1:in1 in out vcc vgnd
Backannotation: u1:in2 in out vcc vgnd
Backannotation: u1:out in out vcc vgnd
Backannotation: u2:in1 in out vcc vgnd
Backannotation: u2:in2 in out vcc vgnd
Backannotation: u2:out in out vcc vgnd
Backannotation: u3:in1 in out vcc vgnd
Backannotation: u3:in2 in out vcc vgnd
Backannotation: u3:out in out vcc vgnd
Backannotation: u4:in1 in out vcc vgnd
Backannotation: u4:in2 in out vcc vgnd
Backannotation: u4:out in out vcc vgnd
Backannotation: u5:in1 in out vcc vgnd
Backannotation: u5:in2 in out vcc vgnd
Backannotation: u5:out in out vcc vgnd
Backannotation: u6:in1 in out vcc vgnd
Backannotation: u6:in2 in out vcc vgnd
Backannotation: u6:out in out vcc vgnd
Backannotation: u7:in1 in out vcc vgnd
Backannotation: u7:in2 in out vcc vgnd
Backannotation: u7:out in out vcc vgnd
Backannotation: u8:in1 in out vcc vgnd
Backannotation: u8:in2 in out vcc vgnd
Backannotation: u8:out in out vcc vgnd
Backannotation: u9:in in out vcc vgnd
Backannotation: u9:out in out vcc vgnd
Backannotation: u1 a y vcc vgnd
Backannotation: u1:in in out vcc vgnd
Backannotation: u1:out in out vcc vgnd
Backannotation: u1 a b y vcc vgnd
Backannotation: u2 a b y vcc vgnd
Backannotation: u3 a b y vcc vgnd
Backannotation: u4 a b y vcc vgnd
Backannotation: u5 a b y vcc vgnd
Backannotation: u6 a b y vcc vgnd
Backannotation: u7 a b y vcc vgnd
Backannotation: u8 a b y vcc vgnd
Backannotation: u9 a b y vcc vgnd
Backannotation: u10 a b y vcc vgnd
Backannotation: u11 a b y vcc vgnd
Backannotation: u12 a b y vcc vgnd
Backannotation: u13 a b y vcc vgnd
Backannotation: u1:in1 in out vcc vgnd
Backannotation: u1:in2 in out vcc vgnd
Backannotation: u1:out in out vcc vgnd
Backannotation: u2:in1 in out vcc vgnd
Backannotation: u2:in2 in out vcc vgnd
Backannotation: u2:out in out vcc vgnd
Backannotation: u3:in1 in out vcc vgnd
Backannotation: u3:in2 in out vcc vgnd
Backannotation: u3:out in out vcc vgnd
Backannotation: u4:in1 in out vcc vgnd
Backannotation: u4:in2 in out vcc vgnd
Backannotation: u4:out in out vcc vgnd
Backannotation: u5:in1 in out vcc vgnd
Backannotation: u5:in2 in out vcc vgnd
Backannotation: u5:out in out vcc vgnd
Backannotation: u6:in1 in out vcc vgnd
Backannotation: u6:in2 in out vcc vgnd
Backannotation: u6:out in out vcc vgnd
Backannotation: u7:in1 in out vcc vgnd
Backannotation: u7:in2 in out vcc vgnd
Backannotation: u7:out in out vcc vgnd
Backannotation: u8:in1 in out vcc vgnd
Backannotation: u8:in2 in out vcc vgnd
Backannotation: u8:out in out vcc vgnd
Backannotation: u9:in1 in out vcc vgnd
Backannotation: u9:in2 in out vcc vgnd
Backannotation: u9:out in out vcc vgnd
Backannotation: u10:in1 in out vcc vgnd
Backannotation: u10:in2 in out vcc vgnd
Backannotation: u10:out in out vcc vgnd
Backannotation: u11:in1 in out vcc vgnd
Backannotation: u11:in2 in out vcc vgnd
Backannotation: u11:out in out vcc vgnd
Backannotation: u12:in1 in out vcc vgnd
Backannotation: u12:in2 in out vcc vgnd
Backannotation: u12:out in out vcc vgnd
Backannotation: u13:in1 in out vcc vgnd
Backannotation: u13:in2 in out vcc vgnd
Backannotation: u13:out in out vcc vgnd
Backannotation: u1 a b y vcc vgnd
Backannotation: u2 a b y vcc vgnd
Backannotation: u3 a b y vcc vgnd
Backannotation: u4 a b y vcc vgnd
Backannotation: u1:in1 in out vcc vgnd
Backannotation: u1:in2 in out vcc vgnd
Backannotation: u1:out in out vcc vgnd
Backannotation: u2:in1 in out vcc vgnd
Backannotation: u2:in2 in out vcc vgnd
Backannotation: u2:out in out vcc vgnd
Backannotation: u3:in1 in out vcc vgnd
Backannotation: u3:in2 in out vcc vgnd
Backannotation: u3:out in out vcc vgnd
Backannotation: u4:in1 in out vcc vgnd
Backannotation: u4:in2 in out vcc vgnd
Backannotation: u4:out in out vcc vgnd
Backannotation: u1 a b y vcc vgnd
Backannotation: u2 a b y vcc vgnd
Backannotation: u3 a b y vcc vgnd
Backannotation: u4 a b y vcc vgnd
Backannotation: u1:in1 in out vcc vgnd
Backannotation: u1:in2 in out vcc vgnd
Backannotation: u1:out in out vcc vgnd
Backannotation: u2:in1 in out vcc vgnd
Backannotation: u2:in2 in out vcc vgnd
Backannotation: u2:out in out vcc vgnd
Backannotation: u3:in1 in out vcc vgnd
Backannotation: u3:in2 in out vcc vgnd
Backannotation: u3:out in out vcc vgnd
Backannotation: u4:in1 in out vcc vgnd
Backannotation: u4:in2 in out vcc vgnd
Backannotation: u4:out in out vcc vgnd
Backannotation: u1 a b y vcc vgnd
Backannotation: u2 a b y vcc vgnd
Backannotation: u3 a b y vcc vgnd
Backannotation: u4 a y vcc vgnd
Backannotation: u5 a y vcc vgnd
Backannotation: u6 a y vcc vgnd
Backannotation: u1:in1 in out vcc vgnd
Backannotation: u1:in2 in out vcc vgnd
Backannotation: u1:out in out vcc vgnd
Backannotation: u2:in1 in out vcc vgnd
Backannotation: u2:in2 in out vcc vgnd
Backannotation: u2:out in out vcc vgnd
Backannotation: u3:in1 in out vcc vgnd
Backannotation: u3:in2 in out vcc vgnd
Backannotation: u3:out in out vcc vgnd
Backannotation: u4:in in out vcc vgnd
Backannotation: u4:out in out vcc vgnd
Backannotation: u5:in in out vcc vgnd
Backannotation: u5:out in out vcc vgnd
Backannotation: u6:in in out vcc vgnd
Backannotation: u6:out in out vcc vgnd
Backannotation: u1 a b y vcc vgnd
Backannotation: u2 a b y vcc vgnd
Backannotation: u3 a b y vcc vgnd
Backannotation: u4 a b y vcc vgnd
Backannotation: u5 a y vcc vgnd
Backannotation: u6 a y vcc vgnd
Backannotation: u7 a y vcc vgnd
Backannotation: u8 a y vcc vgnd
Backannotation: u1:in1 in out vcc vgnd
Backannotation: u1:in2 in out vcc vgnd
Backannotation: u1:out in out vcc vgnd
Backannotation: u2:in1 in out vcc vgnd
Backannotation: u2:in2 in out vcc vgnd
Backannotation: u2:out in out vcc vgnd
Backannotation: u3:in1 in out vcc vgnd
Backannotation: u3:in2 in out vcc vgnd
Backannotation: u3:out in out vcc vgnd
Backannotation: u4:in1 in out vcc vgnd
Backannotation: u4:in2 in out vcc vgnd
Backannotation: u4:out in out vcc vgnd
Backannotation: u5:in in out vcc vgnd
Backannotation: u5:out in out vcc vgnd
Backannotation: u6:in in out vcc vgnd
Backannotation: u6:out in out vcc vgnd
Backannotation: u7:in in out vcc vgnd
Backannotation: u7:out in out vcc vgnd
Backannotation: u8:in in out vcc vgnd
Backannotation: u8:out in out vcc vgnd
Backannotation: u1 a b y vcc vgnd
Backannotation: u2 a b y vcc vgnd
Backannotation: u3 a b y vcc vgnd
Backannotation: u4 a y vcc vgnd
Backannotation: u5 a b y vcc vgnd
Backannotation: u6 a y vcc vgnd
Backannotation: u7 a b c y vcc vgnd
Backannotation: u8 a b c y vcc vgnd
Backannotation: u10 a b y vcc vgnd
Backannotation: u11 a y vcc vgnd
Backannotation: u13 a b y vcc vgnd
Backannotation: u14 a b y vcc vgnd
Backannotation: u15 a b y vcc vgnd
Backannotation: u17 a b y vcc vgnd
Backannotation: u18 a y vcc vgnd
Backannotation: u20 a b y vcc vgnd
Backannotation: u21 a b y vcc vgnd
Backannotation: u22 a b y vcc vgnd
Backannotation: u24 a b y vcc vgnd
Backannotation: u25 a y vcc vgnd
Backannotation: u27 a b y vcc vgnd
Backannotation: u28 a b y vcc vgnd
Backannotation: u29 a b y vcc vgnd
Backannotation: u31 a b y vcc vgnd
Backannotation: u32 a y vcc vgnd
Backannotation: u34 a b y vcc vgnd
Backannotation: u35 a b y vcc vgnd
Backannotation: u36 a b y vcc vgnd
Backannotation: u1:in1 in out vcc vgnd
Backannotation: u1:in2 in out vcc vgnd
Backannotation: u1:out in out vcc vgnd
Backannotation: u2:in1 in out vcc vgnd
Backannotation: u2:in2 in out vcc vgnd
Backannotation: u2:out in out vcc vgnd
Backannotation: u3:in1 in out vcc vgnd
Backannotation: u3:in2 in out vcc vgnd
Backannotation: u3:out in out vcc vgnd
Backannotation: u4:in in out vcc vgnd
Backannotation: u4:out in out vcc vgnd
Backannotation: u5:in1 in out vcc vgnd
Backannotation: u5:in2 in out vcc vgnd
Backannotation: u5:out in out vcc vgnd
Backannotation: u6:in in out vcc vgnd
Backannotation: u6:out in out vcc vgnd
Backannotation: u7:in1 in out vcc vgnd
Backannotation: u7:in2 in out vcc vgnd
Backannotation: u7:in3 in out vcc vgnd
Backannotation: u7:out in out vcc vgnd
Backannotation: u8:in1 in out vcc vgnd
Backannotation: u8:in2 in out vcc vgnd
Backannotation: u8:in3 in out vcc vgnd
Backannotation: u8:out in out vcc vgnd
Backannotation: u10:in1 in out vcc vgnd
Backannotation: u10:in2 in out vcc vgnd
Backannotation: u10:out in out vcc vgnd
Backannotation: u11:in in out vcc vgnd
Backannotation: u11:out in out vcc vgnd
Backannotation: u13:in1 in out vcc vgnd
Backannotation: u13:in2 in out vcc vgnd
Backannotation: u13:out in out vcc vgnd
Backannotation: u14:in1 in out vcc vgnd
Backannotation: u14:in2 in out vcc vgnd
Backannotation: u14:out in out vcc vgnd
Backannotation: u15:in1 in out vcc vgnd
Backannotation: u15:in2 in out vcc vgnd
Backannotation: u15:out in out vcc vgnd
Backannotation: u17:in1 in out vcc vgnd
Backannotation: u17:in2 in out vcc vgnd
Backannotation: u17:out in out vcc vgnd
Backannotation: u18:in in out vcc vgnd
Backannotation: u18:out in out vcc vgnd
Backannotation: u20:in1 in out vcc vgnd
Backannotation: u20:in2 in out vcc vgnd
Backannotation: u20:out in out vcc vgnd
Backannotation: u21:in1 in out vcc vgnd
Backannotation: u21:in2 in out vcc vgnd
Backannotation: u21:out in out vcc vgnd
Backannotation: u22:in1 in out vcc vgnd
Backannotation: u22:in2 in out vcc vgnd
Backannotation: u22:out in out vcc vgnd
Backannotation: u24:in1 in out vcc vgnd
Backannotation: u24:in2 in out vcc vgnd
Backannotation: u24:out in out vcc vgnd
Backannotation: u25:in in out vcc vgnd
Backannotation: u25:out in out vcc vgnd
Backannotation: u27:in1 in out vcc vgnd
Backannotation: u27:in2 in out vcc vgnd
Backannotation: u27:out in out vcc vgnd
Backannotation: u28:in1 in out vcc vgnd
Backannotation: u28:in2 in out vcc vgnd
Backannotation: u28:out in out vcc vgnd
Backannotation: u29:in1 in out vcc vgnd
Backannotation: u29:in2 in out vcc vgnd
Backannotation: u29:out in out vcc vgnd
Backannotation: u31:in1 in out vcc vgnd
Backannotation: u31:in2 in out vcc vgnd
Backannotation: u31:out in out vcc vgnd
Backannotation: u32:in in out vcc vgnd
Backannotation: u32:out in out vcc vgnd
Backannotation: u34:in1 in out vcc vgnd
Backannotation: u34:in2 in out vcc vgnd
Backannotation: u34:out in out vcc vgnd
Backannotation: u35:in1 in out vcc vgnd
Backannotation: u35:in2 in out vcc vgnd
Backannotation: u35:out in out vcc vgnd
Backannotation: u36:in1 in out vcc vgnd
Backannotation: u36:in2 in out vcc vgnd
Backannotation: u36:out in out vcc vgnd
Backannotation: u1 a y vcc vgnd
Backannotation: u2 a y vcc vgnd
Backannotation: u3 a y vcc vgnd
Backannotation: u4 a y vcc vgnd
Backannotation: u1:in in out vcc vgnd
Backannotation: u1:out in out vcc vgnd
Backannotation: u2:in in out vcc vgnd
Backannotation: u2:out in out vcc vgnd
Backannotation: u3:in in out vcc vgnd
Backannotation: u3:out in out vcc vgnd
Backannotation: u4:in in out vcc vgnd
Backannotation: u4:out in out vcc vgnd
Backannotation: u1 a b y vcc vgnd
Backannotation: u2 a b y vcc vgnd
Backannotation: u3 a b y vcc vgnd
Backannotation: u5 a b y vcc vgnd
Backannotation: u1:in1 in out vcc vgnd
Backannotation: u1:in2 in out vcc vgnd
Backannotation: u1:out in out vcc vgnd
Backannotation: u2:in1 in out vcc vgnd
Backannotation: u2:in2 in out vcc vgnd
Backannotation: u2:out in out vcc vgnd
Backannotation: u3:in1 in out vcc vgnd
Backannotation: u3:in2 in out vcc vgnd
Backannotation: u3:out in out vcc vgnd
Backannotation: u5:in1 in out vcc vgnd
Backannotation: u5:in2 in out vcc vgnd
Backannotation: u5:out in out vcc vgnd
Backannotation: u1 a b y vcc vgnd
Backannotation: u2 a b y vcc vgnd
Backannotation: u3 a b y vcc vgnd
Backannotation: u4 a b y vcc vgnd
Backannotation: u1:in1 in out vcc vgnd
Backannotation: u1:in2 in out vcc vgnd
Backannotation: u1:out in out vcc vgnd
Backannotation: u2:in1 in out vcc vgnd
Backannotation: u2:in2 in out vcc vgnd
Backannotation: u2:out in out vcc vgnd
Backannotation: u3:in1 in out vcc vgnd
Backannotation: u3:in2 in out vcc vgnd
Backannotation: u3:out in out vcc vgnd
Backannotation: u4:in1 in out vcc vgnd
Backannotation: u4:in2 in out vcc vgnd
Backannotation: u4:out in out vcc vgnd
Backannotation: u1 a b y vcc vgnd
Backannotation: u2 a b y vcc vgnd
Backannotation: u3 a b y vcc vgnd
Backannotation: u4 a b y vcc vgnd
Backannotation: u1:in1 in out vcc vgnd
Backannotation: u1:in2 in out vcc vgnd
Backannotation: u1:out in out vcc vgnd
Backannotation: u2:in1 in out vcc vgnd
Backannotation: u2:in2 in out vcc vgnd
Backannotation: u2:out in out vcc vgnd
Backannotation: u3:in1 in out vcc vgnd
Backannotation: u3:in2 in out vcc vgnd
Backannotation: u3:out in out vcc vgnd
Backannotation: u4:in1 in out vcc vgnd
Backannotation: u4:in2 in out vcc vgnd
Backannotation: u4:out in out vcc vgnd
Backannotation: u1 a b y vcc vgnd
Backannotation: u2 a b y vcc vgnd
Backannotation: u3 a b y vcc vgnd
Backannotation: u4 a b y vcc vgnd
Backannotation: u5 a b y vcc vgnd
Backannotation: u6 a b y vcc vgnd
Backannotation: u7 a b y vcc vgnd
Backannotation: u8 a b y vcc vgnd
Backannotation: u1:in1 in out vcc vgnd
Backannotation: u1:in2 in out vcc vgnd
Backannotation: u1:out in out vcc vgnd
Backannotation: u2:in1 in out vcc vgnd
Backannotation: u2:in2 in out vcc vgnd
Backannotation: u2:out in out vcc vgnd
Backannotation: u3:in1 in out vcc vgnd
Backannotation: u3:in2 in out vcc vgnd
Backannotation: u3:out in out vcc vgnd
Backannotation: u4:in1 in out vcc vgnd
Backannotation: u4:in2 in out vcc vgnd
Backannotation: u4:out in out vcc vgnd
Backannotation: u5:in1 in out vcc vgnd
Backannotation: u5:in2 in out vcc vgnd
Backannotation: u5:out in out vcc vgnd
Backannotation: u6:in1 in out vcc vgnd
Backannotation: u6:in2 in out vcc vgnd
Backannotation: u6:out in out vcc vgnd
Backannotation: u7:in1 in out vcc vgnd
Backannotation: u7:in2 in out vcc vgnd
Backannotation: u7:out in out vcc vgnd
Backannotation: u8:in1 in out vcc vgnd
Backannotation: u8:in2 in out vcc vgnd
Backannotation: u8:out in out vcc vgnd
Backannotation: u1 a y vcc vgnd
Backannotation: u2 a y vcc vgnd
Backannotation: u3 a y vcc vgnd
Backannotation: u4 a y vcc vgnd
Backannotation: u5 a b c d y vcc vgnd
Backannotation: u6 a b c d y vcc vgnd
Backannotation: u7 a b c d y vcc vgnd
Backannotation: u8 a b c d y vcc vgnd
Backannotation: u9 a b c d y vcc vgnd
Backannotation: u10 a b c d y vcc vgnd
Backannotation: u11 a b c d y vcc vgnd
Backannotation: u12 a b c d y vcc vgnd
Backannotation: u13 a b c d y vcc vgnd
Backannotation: u14 a b c d y vcc vgnd
Backannotation: u15 a b c d y vcc vgnd
Backannotation: u16 a b c d y vcc vgnd
Backannotation: u17 a b c d y vcc vgnd
Backannotation: u18 a b c d y vcc vgnd
Backannotation: u19 a b y vcc vgnd
Backannotation: u20 a b y vcc vgnd
Backannotation: u21 a b y vcc vgnd
Backannotation: u1:in in out vcc vgnd
Backannotation: u1:out in out vcc vgnd
Backannotation: u2:in in out vcc vgnd
Backannotation: u2:out in out vcc vgnd
Backannotation: u3:in in out vcc vgnd
Backannotation: u3:out in out vcc vgnd
Backannotation: u4:in in out vcc vgnd
Backannotation: u4:out in out vcc vgnd
Backannotation: u5:in1 in out vcc vgnd
Backannotation: u5:in2 in out vcc vgnd
Backannotation: u5:in3 in out vcc vgnd
Backannotation: u5:in4 in out vcc vgnd
Backannotation: u5:out in out vcc vgnd
Backannotation: u6:in1 in out vcc vgnd
Backannotation: u6:in2 in out vcc vgnd
Backannotation: u6:in3 in out vcc vgnd
Backannotation: u6:in4 in out vcc vgnd
Backannotation: u6:out in out vcc vgnd
Backannotation: u7:in1 in out vcc vgnd
Backannotation: u7:in2 in out vcc vgnd
Backannotation: u7:in3 in out vcc vgnd
Backannotation: u7:in4 in out vcc vgnd
Backannotation: u7:out in out vcc vgnd
Backannotation: u8:in1 in out vcc vgnd
Backannotation: u8:in2 in out vcc vgnd
Backannotation: u8:in3 in out vcc vgnd
Backannotation: u8:in4 in out vcc vgnd
Backannotation: u8:out in out vcc vgnd
Backannotation: u9:in1 in out vcc vgnd
Backannotation: u9:in2 in out vcc vgnd
Backannotation: u9:in3 in out vcc vgnd
Backannotation: u9:in4 in out vcc vgnd
Backannotation: u9:out in out vcc vgnd
Backannotation: u10:in1 in out vcc vgnd
Backannotation: u10:in2 in out vcc vgnd
Backannotation: u10:in3 in out vcc vgnd
Backannotation: u10:in4 in out vcc vgnd
Backannotation: u10:out in out vcc vgnd
Backannotation: u11:in1 in out vcc vgnd
Backannotation: u11:in2 in out vcc vgnd
Backannotation: u11:in3 in out vcc vgnd
Backannotation: u11:in4 in out vcc vgnd
Backannotation: u11:out in out vcc vgnd
Backannotation: u12:in1 in out vcc vgnd
Backannotation: u12:in2 in out vcc vgnd
Backannotation: u12:in3 in out vcc vgnd
Backannotation: u12:in4 in out vcc vgnd
Backannotation: u12:out in out vcc vgnd
Backannotation: u13:in1 in out vcc vgnd
Backannotation: u13:in2 in out vcc vgnd
Backannotation: u13:in3 in out vcc vgnd
Backannotation: u13:in4 in out vcc vgnd
Backannotation: u13:out in out vcc vgnd
Backannotation: u14:in1 in out vcc vgnd
Backannotation: u14:in2 in out vcc vgnd
Backannotation: u14:in3 in out vcc vgnd
Backannotation: u14:in4 in out vcc vgnd
Backannotation: u14:out in out vcc vgnd
Backannotation: u15:in1 in out vcc vgnd
Backannotation: u15:in2 in out vcc vgnd
Backannotation: u15:in3 in out vcc vgnd
Backannotation: u15:in4 in out vcc vgnd
Backannotation: u15:out in out vcc vgnd
Backannotation: u16:in1 in out vcc vgnd
Backannotation: u16:in2 in out vcc vgnd
Backannotation: u16:in3 in out vcc vgnd
Backannotation: u16:in4 in out vcc vgnd
Backannotation: u16:out in out vcc vgnd
Backannotation: u17:in1 in out vcc vgnd
Backannotation: u17:in2 in out vcc vgnd
Backannotation: u17:in3 in out vcc vgnd
Backannotation: u17:in4 in out vcc vgnd
Backannotation: u17:out in out vcc vgnd
Backannotation: u18:in1 in out vcc vgnd
Backannotation: u18:in2 in out vcc vgnd
Backannotation: u18:in3 in out vcc vgnd
Backannotation: u18:in4 in out vcc vgnd
Backannotation: u18:out in out vcc vgnd
Backannotation: u19:in1 in out vcc vgnd
Backannotation: u19:in2 in out vcc vgnd
Backannotation: u19:out in out vcc vgnd
Backannotation: u20:in1 in out vcc vgnd
Backannotation: u20:in2 in out vcc vgnd
Backannotation: u20:out in out vcc vgnd
Backannotation: u21:in1 in out vcc vgnd
Backannotation: u21:in2 in out vcc vgnd
Backannotation: u21:out in out vcc vgnd
Backannotation: x1 sc0 sc1 sc2 sc3 x0 x1 x2 x3 y0 y1 y2 y3 deslocamento_overlfow deslocamento_s0 deslocamento_s1 deslocamento_s2 deslocamento_s3 logic_s0 logic_s1 logic_s2 logic_s3 overflow s0 s1 s2 s3 s4 s5 s6 x_igual_y x_maior_y x_menor_y
Backannotation: x1:x1 control x0 x1 x2 x3 y0 y1 y2 y3 sx0 sx1 sx2 sx3 sy0 sy1 sy2 sy3
Backannotation: x1:x2 x0 x1 x2 x3 y0 y1 y2 y3 s0 s1 s2 s3
Backannotation: x1:x3 control x0 x1 x2 x3 y0 y1 y2 y3 sx0 sx1 sx2 sx3 sy0 sy1 sy2 sy3
Backannotation: x1:x4 x0 x1 x2 x3 y0 y1 y2 y3 s0 s1 s2 s3
Backannotation: x1:x5 control x0 x1 x2 x3 y0 y1 y2 y3 sx0 sx1 sx2 sx3 sy0 sy1 sy2 sy3
Backannotation: x1:x6 x0 x1 x2 x3 y0 y1 y2 y3 s0 s1 s2 s3
Backannotation: x1:x7 control x0 x1 x2 x3 y0 y1 y2 y3 sx0 sx1 sx2 sx3 sy0 sy1 sy2 sy3
Backannotation: x1:x8 x0 x1 x2 x3 y0 y1 y2 y3
Backannotation: x1:x9 logic_s0_and logic_s0_not logic_s0_or logic_s0_x-or logic_s1_and logic_s1_not logic_s1_or logic_s1_x-or logic_s2_and logic_s2_not logic_s2_or logic_s2_x-or logic_s3_and logic_s3_not logic_s3_or logic_s3_x-or sc0 sc1 sc2 sc3 logic_s0 logic_s1 logic_s2 logic_s3
Backannotation: x1:x10 control x0 x1 x2 x3 y0 y1 y2 y3 sx0 sx1 sx2 sx3 sy0 sy1 sy2 sy3
Backannotation: x1:x11 x0 x1 x2 x3 overflow s0 s1 s2 s3
Backannotation: x1:x12 control x0 x1 x2 x3 y0 y1 y2 y3 sx0 sx1 sx2 sx3 sy0 sy1 sy2 sy3
Backannotation: x1:x13 x1 x2 x3 s0 s1 s2 s3
Backannotation: x1:x14 control x0 x1 x2 x3 y0 y1 y2 y3 sx0 sx1 sx2 sx3 sy0 sy1 sy2 sy3
Backannotation: x1:x15 x0 x1 x2 x3 s0 s1 s2 s3
Backannotation: x1:x16 control x0 x1 x2 x3 y0 y1 y2 y3 sx0 sx1 sx2 sx3 sy0 sy1 sy2 sy3
Backannotation: x1:x17 x0 x1 x2 x3 s0 s1 s2 s3
Backannotation: x1:x18 overflow s0_0 s0_1 s0_2 s0_3 s1_0 s1_1 s1_2 s1_3 s2_0 s2_1 s2_2 s2_3 s3_0 s3_1 s3_2 s3_3 deslocamento_overflow deslocamento_s0 deslocamento_s1 deslocamento_s2 deslocamento_s3
Backannotation: x1:x19 control x0 x1 x2 x3 y0 y1 y2 y3 sx0 sx1 sx2 sx3 sy0 sy1 sy2 sy3
Backannotation: x1:x20 x0 x1 x2 x3 y0 y1 y2 y3 overflow s0 s1 s2 s3
Backannotation: x1:x21 control x0 x1 x2 x3 y0 y1 y2 y3 sx0 sx1 sx2 sx3 sy0 sy1 sy2 sy3
Backannotation: x1:x22 x0 x1 x2 x3 y0 y1 y2 y3 overflow s0 s1 s2 s3
Backannotation: x1:x23 control x0 x1 x2 x3 y0 y1 y2 y3 sx0 sx1 sx2 sx3 sy0 sy1 sy2 sy3
Backannotation: x1:x24 x0 x1 x2 x3 y0 y1 y2 y3 overflow s0 s1 s2 s3 s4 s5 s6
Backannotation: x1:x25 overflow_mult overflow_soma s0_mult s0_soma s0_sub s1_mult s1_soma s1_sub s2_mult s2_soma s2_sub s3_mult s3_soma s3_sub oveflow s0 s1 s2 s3
Backannotation: x1:x29 x0 x1 x2 x3 y0 y1 y2 y3 x<y
Backannotation: x1:x30 x0 x1 x2 x3 y0 y1 y2 y3 x>y
Backannotation: x1:x31 x0 x1 x2 x3 y0 y1 y2 y3 s
Backannotation: x1:x20:x1 x y overflow s
Backannotation: x1:x20:x2 vm x y overflow s
Backannotation: x1:x20:x3 vm x y overflow s
Backannotation: x1:x20:x4 vm x y overflow s
Backannotation: x1:x22:x1 x0 x1 x2 x3 y0 y1 y2 y3
Backannotation: x1:x22:x2 x0 x1 x2 x3 y0 y1 y2 y3 overflow s0 s1 s2 s3
Backannotation: x1:x22:x3 x0 x1 x2 x3 y0 y1 y2 y3 overflow s0 s1 s2 s3
Backannotation: x1:x24:u1 a b y vcc vgnd
Backannotation: x1:x24:u2 a b y vcc vgnd
Backannotation: x1:x24:u3 a b y vcc vgnd
Backannotation: x1:x24:u4 a b y vcc vgnd
Backannotation: x1:x24:u5 a b y vcc vgnd
Backannotation: x1:x24:u6 a b y vcc vgnd
Backannotation: x1:x24:u7 a b y vcc vgnd
Backannotation: x1:x24:u8 a b y vcc vgnd
Backannotation: x1:x24:u9 a b y vcc vgnd
Backannotation: x1:x24:u10 a b y vcc vgnd
Backannotation: x1:x24:u11 a b y vcc vgnd
Backannotation: x1:x24:u12 a b y vcc vgnd
Backannotation: x1:x24:u13 a b y vcc vgnd
Backannotation: x1:x24:u14 a b y vcc vgnd
Backannotation: x1:x24:u15 a b y vcc vgnd
Backannotation: x1:x24:u16 a b y vcc vgnd
Backannotation: x1:x24:x1 x y overflow s
Backannotation: x1:x24:x2 vm x y overflow s
Backannotation: x1:x24:x3 x y overflow s
Backannotation: x1:x24:x4 vm x y overflow s
Backannotation: x1:x24:x5 vm x y overflow s
Backannotation: x1:x24:x6 x y overflow s
Backannotation: x1:x24:x7 vm x y overflow s
Backannotation: x1:x24:x8 vm x y overflow s
Backannotation: x1:x24:x9 x y overflow s
Backannotation: x1:x24:x10 vm x y overflow s
Backannotation: x1:x24:x11 vm x y overflow s
Backannotation: x1:x24:x12 vm x y overflow s
Backannotation: x1:x25:u2 a b y vcc vgnd
Backannotation: x1:x25:u3 a b y vcc vgnd
Backannotation: x1:x25:u4 a b y vcc vgnd
Backannotation: x1:x25:u5 a b y vcc vgnd
Backannotation: x1:x25:u6 a b y vcc vgnd
Backannotation: x1:x25:u7 a b y vcc vgnd
Backannotation: x1:x25:u8 a b y vcc vgnd
Backannotation: x1:x25:u9 a b y vcc vgnd
Backannotation: x1:x25:u10 a b y vcc vgnd
Backannotation: x1:x29:x1 x0 x1 x2 x3 y0 y1 y2 y3 overflow s0 s1 s2 s3
Backannotation: x1:x29:u1 a y vcc vgnd
Backannotation: x1:x30:x1 x0 x1 x2 x3 y0 y1 y2 y3 overflow s0 s1 s2 s3
Backannotation: x1:x30:x2 x0 x1 x2 x3 y0 y1 y2 y3 s
Backannotation: x1:x31:x1 x0 x1 x2 x3 y0 y1 y2 y3 s0 s1 s2 s3
Backannotation: x1:x31:x2 x0 x1 x2 x3 y0 y1 y2 y3
Backannotation: x1:x22:x2:x1 x y overflow s
Backannotation: x1:x22:x2:x2 vm x y overflow s
Backannotation: x1:x22:x2:x3 vm x y overflow s
Backannotation: x1:x22:x2:x4 vm x y overflow s
Backannotation: x1:x22:x3:x1 x y overflow s
Backannotation: x1:x22:x3:x2 vm x y overflow s
Backannotation: x1:x22:x3:x3 vm x y overflow s
Backannotation: x1:x22:x3:x4 vm x y overflow s
Backannotation: x1:x24:u1:in1 in out vcc vgnd
Backannotation: x1:x24:u1:in2 in out vcc vgnd
Backannotation: x1:x24:u1:out in out vcc vgnd
Backannotation: x1:x24:u2:in1 in out vcc vgnd
Backannotation: x1:x24:u2:in2 in out vcc vgnd
Backannotation: x1:x24:u2:out in out vcc vgnd
Backannotation: x1:x24:u3:in1 in out vcc vgnd
Backannotation: x1:x24:u3:in2 in out vcc vgnd
Backannotation: x1:x24:u3:out in out vcc vgnd
Backannotation: x1:x24:u4:in1 in out vcc vgnd
Backannotation: x1:x24:u4:in2 in out vcc vgnd
Backannotation: x1:x24:u4:out in out vcc vgnd
Backannotation: x1:x24:u5:in1 in out vcc vgnd
Backannotation: x1:x24:u5:in2 in out vcc vgnd
Backannotation: x1:x24:u5:out in out vcc vgnd
Backannotation: x1:x24:u6:in1 in out vcc vgnd
Backannotation: x1:x24:u6:in2 in out vcc vgnd
Backannotation: x1:x24:u6:out in out vcc vgnd
Backannotation: x1:x24:u7:in1 in out vcc vgnd
Backannotation: x1:x24:u7:in2 in out vcc vgnd
Backannotation: x1:x24:u7:out in out vcc vgnd
Backannotation: x1:x24:u8:in1 in out vcc vgnd
Backannotation: x1:x24:u8:in2 in out vcc vgnd
Backannotation: x1:x24:u8:out in out vcc vgnd
Backannotation: x1:x24:u9:in1 in out vcc vgnd
Backannotation: x1:x24:u9:in2 in out vcc vgnd
Backannotation: x1:x24:u9:out in out vcc vgnd
Backannotation: x1:x24:u10:in1 in out vcc vgnd
Backannotation: x1:x24:u10:in2 in out vcc vgnd
Backannotation: x1:x24:u10:out in out vcc vgnd
Backannotation: x1:x24:u11:in1 in out vcc vgnd
Backannotation: x1:x24:u11:in2 in out vcc vgnd
Backannotation: x1:x24:u11:out in out vcc vgnd
Backannotation: x1:x24:u12:in1 in out vcc vgnd
Backannotation: x1:x24:u12:in2 in out vcc vgnd
Backannotation: x1:x24:u12:out in out vcc vgnd
Backannotation: x1:x24:u13:in1 in out vcc vgnd
Backannotation: x1:x24:u13:in2 in out vcc vgnd
Backannotation: x1:x24:u13:out in out vcc vgnd
Backannotation: x1:x24:u14:in1 in out vcc vgnd
Backannotation: x1:x24:u14:in2 in out vcc vgnd
Backannotation: x1:x24:u14:out in out vcc vgnd
Backannotation: x1:x24:u15:in1 in out vcc vgnd
Backannotation: x1:x24:u15:in2 in out vcc vgnd
Backannotation: x1:x24:u15:out in out vcc vgnd
Backannotation: x1:x24:u16:in1 in out vcc vgnd
Backannotation: x1:x24:u16:in2 in out vcc vgnd
Backannotation: x1:x24:u16:out in out vcc vgnd
Backannotation: x1:x25:u2:in1 in out vcc vgnd
Backannotation: x1:x25:u2:in2 in out vcc vgnd
Backannotation: x1:x25:u2:out in out vcc vgnd
Backannotation: x1:x25:u3:in1 in out vcc vgnd
Backannotation: x1:x25:u3:in2 in out vcc vgnd
Backannotation: x1:x25:u3:out in out vcc vgnd
Backannotation: x1:x25:u4:in1 in out vcc vgnd
Backannotation: x1:x25:u4:in2 in out vcc vgnd
Backannotation: x1:x25:u4:out in out vcc vgnd
Backannotation: x1:x25:u5:in1 in out vcc vgnd
Backannotation: x1:x25:u5:in2 in out vcc vgnd
Backannotation: x1:x25:u5:out in out vcc vgnd
Backannotation: x1:x25:u6:in1 in out vcc vgnd
Backannotation: x1:x25:u6:in2 in out vcc vgnd
Backannotation: x1:x25:u6:out in out vcc vgnd
Backannotation: x1:x25:u7:in1 in out vcc vgnd
Backannotation: x1:x25:u7:in2 in out vcc vgnd
Backannotation: x1:x25:u7:out in out vcc vgnd
Backannotation: x1:x25:u8:in1 in out vcc vgnd
Backannotation: x1:x25:u8:in2 in out vcc vgnd
Backannotation: x1:x25:u8:out in out vcc vgnd
Backannotation: x1:x25:u9:in1 in out vcc vgnd
Backannotation: x1:x25:u9:in2 in out vcc vgnd
Backannotation: x1:x25:u9:out in out vcc vgnd
Backannotation: x1:x25:u10:in1 in out vcc vgnd
Backannotation: x1:x25:u10:in2 in out vcc vgnd
Backannotation: x1:x25:u10:out in out vcc vgnd
Backannotation: x1:x29:x1:x1 x0 x1 x2 x3 y0 y1 y2 y3
Backannotation: x1:x29:x1:x2 x0 x1 x2 x3 y0 y1 y2 y3 overflow s0 s1 s2 s3
Backannotation: x1:x29:x1:x3 x0 x1 x2 x3 y0 y1 y2 y3 overflow s0 s1 s2 s3
Backannotation: x1:x29:u1:in in out vcc vgnd
Backannotation: x1:x29:u1:out in out vcc vgnd
Backannotation: x1:x30:x1:x1 x0 x1 x2 x3 y0 y1 y2 y3
Backannotation: x1:x30:x1:x2 x0 x1 x2 x3 y0 y1 y2 y3 overflow s0 s1 s2 s3
Backannotation: x1:x30:x1:x3 x0 x1 x2 x3 y0 y1 y2 y3 overflow s0 s1 s2 s3
Backannotation: x1:x30:x2:x1 x0 x1 x2 x3 y0 y1 y2 y3 s0 s1 s2 s3
Backannotation: x1:x30:x2:x2 x0 x1 x2 x3 y0 y1 y2 y3
Backannotation: x1:x29:x1:x2:x1 x y overflow s
Backannotation: x1:x29:x1:x2:x2 vm x y overflow s
Backannotation: x1:x29:x1:x2:x3 vm x y overflow s
Backannotation: x1:x29:x1:x2:x4 vm x y overflow s
Backannotation: x1:x29:x1:x3:x1 x y overflow s
Backannotation: x1:x29:x1:x3:x2 vm x y overflow s
Backannotation: x1:x29:x1:x3:x3 vm x y overflow s
Backannotation: x1:x29:x1:x3:x4 vm x y overflow s
Backannotation: x1:x30:x1:x2:x1 x y overflow s
Backannotation: x1:x30:x1:x2:x2 vm x y overflow s
Backannotation: x1:x30:x1:x2:x3 vm x y overflow s
Backannotation: x1:x30:x1:x2:x4 vm x y overflow s
Backannotation: x1:x30:x1:x3:x1 x y overflow s
Backannotation: x1:x30:x1:x3:x2 vm x y overflow s